VARIABLES = X Y Z
Zone  I = 21 ,J = 21 , Datapacking = Point
-10  1.06029e-07  18
-1.11296  6.4936e-08  10.0264
7.72972  5.03312e-08  4.36908
16.528  6.22148e-08  1.02797
25.5196  9.80726e-08  2.35741e-08
41.6881  7.56921e-08  8.81784e-09
58.0038  6.16335e-08  -2.07413e-10
74.4668  5.58968e-08  -3.50163e-09
91.0768  5.846e-08  -1.08055e-09
107.751  6.3394e-08  2.82299e-09
124.426  6.60704e-08  4.90447e-09
141.1  6.65345e-08  5.2751e-09
157.775  6.52814e-08  5.1516e-09
174.449  6.26608e-08  4.89106e-09
191.122  6.28483e-08  4.94021e-09
207.793  6.74569e-08  5.47164e-09
224.462  7.64867e-08  6.48536e-09
242.745  7.33069e-08  -3.60875
258.973  8.39948e-08  -0.593872
273.058  1.0927e-07  9.27571
285  1.49131e-07  26
-10  1.07631  18.38
-1.11296  0.79941  11.1716
7.72972  0.857558  5.77868
16.528  1.25076  2.20121
25.5196  1.95847  0.456829
41.6881  2.18249  0.178893
58.0038  2.34766  0.017202
74.4668  2.45399  -0.0282442
91.0768  2.50158  0.0422184
107.751  2.51862  0.138227
124.426  2.52713  0.189236
141.1  2.52788  0.198214
157.775  2.52924  0.197642
174.449  2.533  0.196521
191.122  2.52868  0.196371
207.793  2.51223  0.19778
224.462  2.48365  0.200749
242.745  2.48255  -3.26286
258.973  2.14139  -0.193983
273.058  1.45342  9.63216
285  0.418671  26.2156
-10  2.14737  18.7703
-1.11296  1.5932  12.319
7.72972  1.70637  7.19127
16.528  2.48686  3.38716
25.5196  3.89211  0.945101
41.6881  4.29642  0.409479
58.0038  4.60714  0.093632
74.4668  4.82426  -0.0024391
91.0768  4.94793  0.120638
107.751  5.01284  0.294225
124.426  5.04607  0.386669
141.1  5.05014  0.403284
157.775  5.05254  0.40221
174.449  5.05967  0.399757
191.122  5.0489  0.402578
207.793  5.01149  0.413244
224.462  4.94743  0.431754
242.745  4.96124  -2.91023
258.973  4.28814  0.198757
273.058  2.91376  9.97869
285  0.838094  26.4296
-10  3.22928  19.1397
-1.11296  2.27491  13.5469
7.72972  2.411  8.70805
16.528  3.63753  4.62318
25.5196  5.88066  1.35393
41.6881  6.38943  0.486922
58.0038  6.80367  -0.0124605
74.4669  7.12339  -0.144221
91.0768  7.34863  0.0905676
107.751  7.49338  0.403721
124.426  7.56855  0.570255
141.1  7.57937  0.599835
157.775  7.58321  0.598187
174.449  7.59414  0.594725
191.122  7.57951  0.59672
207.793  7.52669  0.606979
224.462  7.4357  0.625503
242.745  7.44321  -2.56351
258.973  6.42655  0.602951
273.058  4.3649  10.3381
285  1.25827  26.6419
-10  4.31036  19.5104
-1.11296  2.96089  14.7564
7.72972  3.08191  10.2517
16.528  4.67342  5.99642
25.5196  7.64616  2.0588
41.6881  8.5432  0.605924
58.0038  9.22199  -0.230564
74.4669  9.68255  -0.450662
91.0768  9.9252  -0.056169
107.751  10.0406  0.469523
124.426  10.0996  0.749034
141.1  10.1068  0.798642
157.775  10.112  0.796409
174.449  10.1267  0.791717
191.122  10.1076  0.793741
207.793  10.038  0.806024
224.462  9.9178  0.828566
242.745  9.90425  -2.18336
258.973  8.53996  1.04726
273.058  5.79829  10.7259
285  1.67921  26.8527
-10  5.3511  19.9586
-1.11296  3.87323  15.7391
7.72972  3.93947  11.6305
16.528  5.54983  7.63291
25.5196  8.65203  3.76707
41.6881  10.6175  1.1329
58.0038  11.9682  -0.429564
74.4668  12.7041  -0.920326
91.0768  12.8265  -0.342428
107.751  12.7091  0.486179
124.426  12.6436  0.926927
141.1  12.6276  1.00549
157.775  12.6337  1.00277
174.449  12.6517  0.996694
191.122  12.6257  1.00244
207.793  12.534  1.02589
224.462  12.3767  1.06702
242.745  12.2991  -1.70757
258.973  10.576  1.60222
273.058  7.17661  11.192
285  2.10092  27.0618
-10  6.32573  20.534
-1.11296  4.92648  16.7021
7.72972  4.97306  12.9372
16.528  6.46546  9.23939
25.5196  9.40645  5.58546
41.6881  12.5831  1.99551
58.0038  14.7009  -0.193446
74.4668  15.7598  -0.981409
91.0768  15.7624  -0.372244
107.751  15.3962  0.595055
124.426  15.1981  1.10936
141.1  15.1579  1.20068
157.775  15.1655  1.1974
174.449  15.1873  1.19052
191.122  15.1576  1.19507
207.793  15.0513  1.21687
224.462  14.8682  1.25593
242.745  14.5461  -1.0744
258.973  12.3946  2.39645
273.058  8.38703  11.8443
285  2.52341  27.2693
-10  7.24873  21.2083
-1.11296  6.07836  17.6429
7.72972  6.15613  14.1696
16.528  7.48205  10.7886
25.5196  10.1132  7.44095
41.6881  14.3305  3.19027
58.0038  17.1358  0.516841
74.4668  18.529  -0.57933
91.0768  18.5136  -0.102435
107.751  18.0106  0.821274
124.426  17.7391  1.31254
141.1  17.685  1.39993
157.775  17.694  1.39603
174.449  17.7197  1.3876
191.122  17.6858  1.39205
207.793  17.5624  1.41609
224.462  17.3497  1.45973
242.745  16.5817  -0.20005
258.973  13.932  3.50947
273.058  9.38701  12.7345
285  2.94668  27.4751
-10  8.16251  21.8994
-1.11296  7.27239  18.5458
7.72972  7.42571  15.3294
16.528  8.62247  12.2502
25.5196  10.9542  9.23077
41.6881  15.7394  4.75233
58.0038  18.9862  1.81427
74.4668  20.6945  0.416594
91.0768  20.868  0.555462
107.751  20.4706  1.19862
124.426  20.2552  1.54018
141.1  20.211  1.60008
157.775  20.2211  1.59618
174.449  20.2489  1.5891
191.122  20.2107  1.59342
207.793  20.0741  1.6148
224.462  19.8391  1.65324
242.745  18.265  1.04356
258.973  14.9877  5.12834
273.058  10.023  14.0069
285  3.37074  27.6792
-10  9.09502  22.5532
-1.11296  8.48201  19.4115
7.72972  8.72881  16.4495
16.528  9.83541  13.6671
25.5196  11.8993  10.9945
41.6881  16.5911  6.94318
58.0038  19.9045  4.10923
74.4668  21.8396  2.49268
91.0768  22.3992  2.09089
107.751  22.3607  2.19701
124.426  22.3313  2.25918
141.1  22.3129  2.27818
157.775  22.3298  2.26248
174.449  22.3804  2.22033
191.122  22.3099  2.26791
207.793  22.0582  2.45011
224.462  21.6255  2.76692
242.745  19.1894  3.07942
258.973  15.3845  7.33576
273.058  10.2533  15.6032
285  3.7956  27.8816
-10  10.0285  23.2046
-1.11296  9.68377  20.2823
7.72972  10.0446  17.5629
16.528  11.1109  15.0465
25.5196  12.9815  12.6652
41.6881  17.4533  8.94009
58.0038  20.5719  6.36227
74.4668  22.3375  4.93169
91.0768  22.7528  4.64582
107.751  22.6103  4.81926
124.426  22.5287  4.91692
141.1  22.5059  4.94228
157.775  22.5213  4.93337
174.449  22.5628  4.9051
191.122  22.5049  4.94435
207.793  22.299  5.0847
224.462  21.9451  5.32615
242.745  19.3887  5.63386
258.973  15.557  9.50017
273.058  10.5012  16.983
285  4.22125  28.0824
-10  10.9493  23.8796
-1.11296  10.8595  21.174
7.72972  11.3475  18.6809
16.528  12.4133  16.4002
25.5196  14.1456  14.2734
41.6881  18.1832  11.0101
58.0038  20.9962  8.73357
74.4668  22.5845  7.4438
91.0768  22.9509  7.13865
107.751  22.8146  7.2412
124.426  22.7373  7.30106
141.1  22.7173  7.31928
157.775  22.7356  7.30752
174.449  22.7796  7.27409
191.122  22.7044  7.31847
207.793  22.4538  7.47912
224.462  22.028  7.75604
242.745  19.4501  8.15932
258.973  15.669  11.6901
273.058  10.7349  18.3975
285  4.6477  28.2814
-10  11.8762  24.5407
-1.11296  12.0197  22.08
7.72972  12.631  19.8218
16.528  13.7102  17.766
25.5196  15.3337  15.8639
41.6881  18.9038  13.039
58.0038  21.3699  11.0741
74.4668  22.7321  9.96923
91.0768  22.9929  9.72244
107.751  22.8153  9.8267
124.426  22.7173  9.88617
141.1  22.6956  9.90245
157.775  22.7138  9.89288
174.449  22.7549  9.86616
191.122  22.6814  9.89879
207.793  22.4399  10.0203
224.462  22.0304  10.2308
242.745  19.5238  10.6812
258.973  15.8379  13.8537
273.058  11.0216  19.7862
285  5.07493  28.4788
-10  12.7969  25.2127
-1.11296  13.1699  23.0031
7.72972  13.8982  20.9847
16.528  14.9817  19.1576
25.5196  16.4845  17.482
41.6881  19.58  15.0847
58.0038  21.7038  13.4148
74.4668  22.8561  12.4723
91.0768  23.0391  12.2557
107.751  22.846  12.3379
124.426  22.74  12.3853
141.1  22.7174  12.3991
157.775  22.7357  12.3903
174.449  22.7761  12.3656
191.122  22.6962  12.3968
207.793  22.4407  12.5114
224.462  22.0099  12.7095
242.745  19.7088  13.1775
258.973  16.1706  15.9791
273.058  11.4353  21.1447
285  5.50295  28.6745
-10  13.7154  25.8873
-1.11296  14.3048  23.9444
7.72972  15.1372  22.1768
16.528  16.2125  20.5843
25.5196  17.5828  19.1359
41.6881  20.1971  17.1496
58.0038  21.9754  15.7669
74.4668  22.9177  14.9877
91.0768  23.026  14.8108
107.751  22.8209  14.8812
124.426  22.7088  14.9219
141.1  22.6853  14.9338
157.775  22.7024  14.9269
174.449  22.74  14.907
191.122  22.6619  14.9322
207.793  22.4156  15.0251
224.462  22.0012  15.1855
242.745  20.0638  15.6421
258.973  16.7269  18.0632
273.058  12.0162  22.472
285  5.93173  28.8686
-10  14.6332  26.562
-1.11296  15.4283  24.8998
7.72972  16.3495  23.3954
16.528  17.3968  22.0487
25.5196  18.6104  20.8364
41.6881  20.736  19.2478
58.0038  22.1739  18.1369
74.4668  22.9239  17.5038
91.0768  22.9878  17.3474
107.751  22.799  17.3903
124.426  22.6959  17.4159
141.1  22.6745  17.4243
157.775  22.6893  17.4176
174.449  22.7217  17.3992
191.122  22.6519  17.4218
207.793  22.4333  17.5058
224.462  22.0661  17.6512
242.745  20.6198  18.055
258.973  17.5168  20.0817
273.058  12.764  23.7504
285  6.36128  29.0611
-10  15.5475  27.2417
-1.11296  16.5298  25.8803
7.72972  17.5223  24.6518
16.528  18.5252  23.5559
25.5196  19.5675  22.5764
41.6881  21.2078  21.3602
58.0038  22.3096  20.5082
74.4668  22.8731  20.0203
91.0768  22.8995  19.8958
107.751  22.7329  19.9243
124.426  22.6421  19.9416
141.1  22.6232  19.9478
157.775  22.6329  19.9431
174.449  22.6552  19.9295
191.122  22.6078  19.9468
207.793  22.4588  20.0105
224.462  22.2083  20.1206
242.745  21.3226  20.4288
258.973  18.4642  22.0456
273.058  13.6205  24.9866
285  6.79157  29.2519
-10  16.4576  27.9277
-1.11296  17.6145  26.8825
7.72972  18.6565  25.9434
16.528  19.5837  25.1105
25.5196  20.4162  24.3729
41.6881  21.597  23.4982
58.0038  22.3863  22.8832
74.4668  22.7842  22.5279
91.0768  22.7915  22.4317
107.751  22.661  22.4462
124.426  22.5897  22.4555
141.1  22.5742  22.4595
157.775  22.5769  22.4562
174.449  22.5853  22.4467
191.122  22.5633  22.4596
207.793  22.4967  22.506
224.462  22.3857  22.586
242.745  22.0854  22.7825
258.973  19.4742  23.984
273.058  14.52  26.2036
285  7.2226  29.4412
-10  17.3653  28.6165
-1.11296  18.6802  27.9057
7.72972  19.7476  27.2703
16.528  20.5673  26.7102
25.5196  21.1536  26.219
41.6881  21.912  25.6541
58.0038  22.4167  25.2563
74.4668  22.6678  25.0254
91.0768  22.6659  24.9611
107.751  22.576  24.9686
124.426  22.527  24.9736
141.1  22.5162  24.9761
157.775  22.5148  24.9742
174.449  22.5146  24.9685
191.122  22.5082  24.9769
207.793  22.4927  25.0066
224.462  22.4683  25.0575
242.745  22.7684  25.1527
258.973  20.4268  25.9412
273.058  15.3888  27.4333
285  7.65435  29.629
-10  18.2712  29.3072
-1.11296  19.7287  28.9468
7.72972  20.8017  28.6255
16.528  21.4904  28.3434
25.5196  21.8049  28.0973
41.6881  22.1724  27.8237
58.0038  22.4167  27.63
74.4668  22.5375  27.5163
91.0768  22.5354  27.4825
107.751  22.4907  27.4836
124.426  22.4663  27.4847
141.1  22.461  27.4857
157.775  22.4605  27.4847
174.449  22.4605  27.4815
191.122  22.456  27.4858
207.793  22.4451  27.5012
224.462  22.4277  27.5277
242.745  23.3112  27.5541
258.973  21.2551  27.9411
273.058  16.1802  28.6948
285  8.08682  29.8153
-10  19.176  30
-1.11296  20.7666  30
7.72972  21.83  30
16.528  22.3662  30
25.5196  22.3835  30
41.6881  22.3956  30
58.0038  22.4032  30
74.4668  22.4062  30
91.0768  22.4046  30
107.751  22.4018  30
124.426  22.4003  30
141.1  22.4  30
157.775  22.4  30
174.449  22.4  30
191.122  22.4  30
207.793  22.4  30
224.462  22.4  30
242.745  23.6867  30
258.973  21.8497  30
273.058  16.7941  30
285  8.52  30
VARIABLES = X Y Z
Zone  I = 21 ,J = 21 , Datapacking = Point
-10  -1.06029e-07  18
-1.11296  -6.4936e-08  10.0264
7.72972  -5.03312e-08  4.36908
16.528  -6.22148e-08  1.02797
25.5196  -9.80726e-08  2.35741e-08
41.6881  -7.56921e-08  8.81784e-09
58.0038  -6.16335e-08  -2.07413e-10
74.4668  -5.58968e-08  -3.50163e-09
91.0768  -5.846e-08  -1.08055e-09
107.751  -6.3394e-08  2.82299e-09
124.426  -6.60704e-08  4.90447e-09
141.1  -6.65345e-08  5.2751e-09
157.775  -6.52814e-08  5.1516e-09
174.449  -6.26608e-08  4.89106e-09
191.122  -6.28483e-08  4.94021e-09
207.793  -6.74569e-08  5.47164e-09
224.462  -7.64867e-08  6.48536e-09
242.745  -7.33069e-08  -3.60875
258.973  -8.39948e-08  -0.593872
273.058  -1.0927e-07  9.27571
285  -1.49131e-07  26
-10  -1.07631  18.38
-1.11296  -0.79941  11.1716
7.72972  -0.857558  5.77868
16.528  -1.25076  2.20121
25.5196  -1.95847  0.456829
41.6881  -2.18249  0.178893
58.0038  -2.34766  0.017202
74.4668  -2.45399  -0.0282442
91.0768  -2.50158  0.0422184
107.751  -2.51862  0.138227
124.426  -2.52713  0.189236
141.1  -2.52788  0.198214
157.775  -2.52924  0.197642
174.449  -2.533  0.196521
191.122  -2.52868  0.196371
207.793  -2.51223  0.19778
224.462  -2.48365  0.200749
242.745  -2.48255  -3.26286
258.973  -2.14139  -0.193983
273.058  -1.45342  9.63216
285  -0.418671  26.2156
-10  -2.14737  18.7703
-1.11296  -1.5932  12.319
7.72972  -1.70637  7.19127
16.528  -2.48686  3.38716
25.5196  -3.89211  0.945101
41.6881  -4.29642  0.409479
58.0038  -4.60714  0.093632
74.4668  -4.82426  -0.0024391
91.0768  -4.94793  0.120638
107.751  -5.01284  0.294225
124.426  -5.04607  0.386669
141.1  -5.05014  0.403284
157.775  -5.05254  0.40221
174.449  -5.05967  0.399757
191.122  -5.0489  0.402578
207.793  -5.01149  0.413244
224.462  -4.94743  0.431754
242.745  -4.96124  -2.91023
258.973  -4.28814  0.198757
273.058  -2.91376  9.97869
285  -0.838094  26.4296
-10  -3.22928  19.1397
-1.11296  -2.27491  13.5469
7.72972  -2.411  8.70805
16.528  -3.63753  4.62318
25.5196  -5.88066  1.35393
41.6881  -6.38943  0.486922
58.0038  -6.80367  -0.0124605
74.4669  -7.12339  -0.144221
91.0768  -7.34863  0.0905676
107.751  -7.49338  0.403721
124.426  -7.56855  0.570255
141.1  -7.57937  0.599835
157.775  -7.58321  0.598187
174.449  -7.59414  0.594725
191.122  -7.57951  0.59672
207.793  -7.52669  0.606979
224.462  -7.4357  0.625503
242.745  -7.44321  -2.56351
258.973  -6.42655  0.602951
273.058  -4.3649  10.3381
285  -1.25827  26.6419
-10  -4.31036  19.5104
-1.11296  -2.96089  14.7564
7.72972  -3.08191  10.2517
16.528  -4.67342  5.99642
25.5196  -7.64616  2.0588
41.6881  -8.5432  0.605924
58.0038  -9.22199  -0.230564
74.4669  -9.68255  -0.450662
91.0768  -9.9252  -0.056169
107.751  -10.0406  0.469523
124.426  -10.0996  0.749034
141.1  -10.1068  0.798642
157.775  -10.112  0.796409
174.449  -10.1267  0.791717
191.122  -10.1076  0.793741
207.793  -10.038  0.806024
224.462  -9.9178  0.828566
242.745  -9.90425  -2.18336
258.973  -8.53996  1.04726
273.058  -5.79829  10.7259
285  -1.67921  26.8527
-10  -5.3511  19.9586
-1.11296  -3.87323  15.7391
7.72972  -3.93947  11.6305
16.528  -5.54983  7.63291
25.5196  -8.65203  3.76707
41.6881  -10.6175  1.1329
58.0038  -11.9682  -0.429564
74.4668  -12.7041  -0.920326
91.0768  -12.8265  -0.342428
107.751  -12.7091  0.486179
124.426  -12.6436  0.926927
141.1  -12.6276  1.00549
157.775  -12.6337  1.00277
174.449  -12.6517  0.996694
191.122  -12.6257  1.00244
207.793  -12.534  1.02589
224.462  -12.3767  1.06702
242.745  -12.2991  -1.70757
258.973  -10.576  1.60222
273.058  -7.17661  11.192
285  -2.10092  27.0618
-10  -6.32573  20.534
-1.11296  -4.92648  16.7021
7.72972  -4.97306  12.9372
16.528  -6.46546  9.23939
25.5196  -9.40645  5.58546
41.6881  -12.5831  1.99551
58.0038  -14.7009  -0.193446
74.4668  -15.7598  -0.981409
91.0768  -15.7624  -0.372244
107.751  -15.3962  0.595055
124.426  -15.1981  1.10936
141.1  -15.1579  1.20068
157.775  -15.1655  1.1974
174.449  -15.1873  1.19052
191.122  -15.1576  1.19507
207.793  -15.0513  1.21687
224.462  -14.8682  1.25593
242.745  -14.5461  -1.0744
258.973  -12.3946  2.39645
273.058  -8.38703  11.8443
285  -2.52341  27.2693
-10  -7.24873  21.2083
-1.11296  -6.07836  17.6429
7.72972  -6.15613  14.1696
16.528  -7.48205  10.7886
25.5196  -10.1132  7.44095
41.6881  -14.3305  3.19027
58.0038  -17.1358  0.516841
74.4668  -18.529  -0.57933
91.0768  -18.5136  -0.102435
107.751  -18.0106  0.821274
124.426  -17.7391  1.31254
141.1  -17.685  1.39993
157.775  -17.694  1.39603
174.449  -17.7197  1.3876
191.122  -17.6858  1.39205
207.793  -17.5624  1.41609
224.462  -17.3497  1.45973
242.745  -16.5817  -0.20005
258.973  -13.932  3.50947
273.058  -9.38701  12.7345
285  -2.94668  27.4751
-10  -8.16251  21.8994
-1.11296  -7.27239  18.5458
7.72972  -7.42571  15.3294
16.528  -8.62247  12.2502
25.5196  -10.9542  9.23077
41.6881  -15.7394  4.75233
58.0038  -18.9862  1.81427
74.4668  -20.6945  0.416594
91.0768  -20.868  0.555462
107.751  -20.4706  1.19862
124.426  -20.2552  1.54018
141.1  -20.211  1.60008
157.775  -20.2211  1.59618
174.449  -20.2489  1.5891
191.122  -20.2107  1.59342
207.793  -20.0741  1.6148
224.462  -19.8391  1.65324
242.745  -18.265  1.04356
258.973  -14.9877  5.12834
273.058  -10.023  14.0069
285  -3.37074  27.6792
-10  -9.09502  22.5532
-1.11296  -8.48201  19.4115
7.72972  -8.72881  16.4495
16.528  -9.83541  13.6671
25.5196  -11.8993  10.9945
41.6881  -16.5911  6.94318
58.0038  -19.9045  4.10923
74.4668  -21.8396  2.49268
91.0768  -22.3992  2.09089
107.751  -22.3607  2.19701
124.426  -22.3313  2.25918
141.1  -22.3129  2.27818
157.775  -22.3298  2.26248
174.449  -22.3804  2.22033
191.122  -22.3099  2.26791
207.793  -22.0582  2.45011
224.462  -21.6255  2.76692
242.745  -19.1894  3.07942
258.973  -15.3845  7.33576
273.058  -10.2533  15.6032
285  -3.7956  27.8816
-10  -10.0285  23.2046
-1.11296  -9.68377  20.2823
7.72972  -10.0446  17.5629
16.528  -11.1109  15.0465
25.5196  -12.9815  12.6652
41.6881  -17.4533  8.94009
58.0038  -20.5719  6.36227
74.4668  -22.3375  4.93169
91.0768  -22.7528  4.64582
107.751  -22.6103  4.81926
124.426  -22.5287  4.91692
141.1  -22.5059  4.94228
157.775  -22.5213  4.93337
174.449  -22.5628  4.9051
191.122  -22.5049  4.94435
207.793  -22.299  5.0847
224.462  -21.9451  5.32615
242.745  -19.3887  5.63386
258.973  -15.557  9.50017
273.058  -10.5012  16.983
285  -4.22125  28.0824
-10  -10.9493  23.8796
-1.11296  -10.8595  21.174
7.72972  -11.3475  18.6809
16.528  -12.4133  16.4002
25.5196  -14.1456  14.2734
41.6881  -18.1832  11.0101
58.0038  -20.9962  8.73357
74.4668  -22.5845  7.4438
91.0768  -22.9509  7.13865
107.751  -22.8146  7.2412
124.426  -22.7373  7.30106
141.1  -22.7173  7.31928
157.775  -22.7356  7.30752
174.449  -22.7796  7.27409
191.122  -22.7044  7.31847
207.793  -22.4538  7.47912
224.462  -22.028  7.75604
242.745  -19.4501  8.15932
258.973  -15.669  11.6901
273.058  -10.7349  18.3975
285  -4.6477  28.2814
-10  -11.8762  24.5407
-1.11296  -12.0197  22.08
7.72972  -12.631  19.8218
16.528  -13.7102  17.766
25.5196  -15.3337  15.8639
41.6881  -18.9038  13.039
58.0038  -21.3699  11.0741
74.4668  -22.7321  9.96923
91.0768  -22.9929  9.72244
107.751  -22.8153  9.8267
124.426  -22.7173  9.88617
141.1  -22.6956  9.90245
157.775  -22.7138  9.89288
174.449  -22.7549  9.86616
191.122  -22.6814  9.89879
207.793  -22.4399  10.0203
224.462  -22.0304  10.2308
242.745  -19.5238  10.6812
258.973  -15.8379  13.8537
273.058  -11.0216  19.7862
285  -5.07493  28.4788
-10  -12.7969  25.2127
-1.11296  -13.1699  23.0031
7.72972  -13.8982  20.9847
16.528  -14.9817  19.1576
25.5196  -16.4845  17.482
41.6881  -19.58  15.0847
58.0038  -21.7038  13.4148
74.4668  -22.8561  12.4723
91.0768  -23.0391  12.2557
107.751  -22.846  12.3379
124.426  -22.74  12.3853
141.1  -22.7174  12.3991
157.775  -22.7357  12.3903
174.449  -22.7761  12.3656
191.122  -22.6962  12.3968
207.793  -22.4407  12.5114
224.462  -22.0099  12.7095
242.745  -19.7088  13.1775
258.973  -16.1706  15.9791
273.058  -11.4353  21.1447
285  -5.50295  28.6745
-10  -13.7154  25.8873
-1.11296  -14.3048  23.9444
7.72972  -15.1372  22.1768
16.528  -16.2125  20.5843
25.5196  -17.5828  19.1359
41.6881  -20.1971  17.1496
58.0038  -21.9754  15.7669
74.4668  -22.9177  14.9877
91.0768  -23.026  14.8108
107.751  -22.8209  14.8812
124.426  -22.7088  14.9219
141.1  -22.6853  14.9338
157.775  -22.7024  14.9269
174.449  -22.74  14.907
191.122  -22.6619  14.9322
207.793  -22.4156  15.0251
224.462  -22.0012  15.1855
242.745  -20.0638  15.6421
258.973  -16.7269  18.0632
273.058  -12.0162  22.472
285  -5.93173  28.8686
-10  -14.6332  26.562
-1.11296  -15.4283  24.8998
7.72972  -16.3495  23.3954
16.528  -17.3968  22.0487
25.5196  -18.6104  20.8364
41.6881  -20.736  19.2478
58.0038  -22.1739  18.1369
74.4668  -22.9239  17.5038
91.0768  -22.9878  17.3474
107.751  -22.799  17.3903
124.426  -22.6959  17.4159
141.1  -22.6745  17.4243
157.775  -22.6893  17.4176
174.449  -22.7217  17.3992
191.122  -22.6519  17.4218
207.793  -22.4333  17.5058
224.462  -22.0661  17.6512
242.745  -20.6198  18.055
258.973  -17.5168  20.0817
273.058  -12.764  23.7504
285  -6.36128  29.0611
-10  -15.5475  27.2417
-1.11296  -16.5298  25.8803
7.72972  -17.5223  24.6518
16.528  -18.5252  23.5559
25.5196  -19.5675  22.5764
41.6881  -21.2078  21.3602
58.0038  -22.3096  20.5082
74.4668  -22.8731  20.0203
91.0768  -22.8995  19.8958
107.751  -22.7329  19.9243
124.426  -22.6421  19.9416
141.1  -22.6232  19.9478
157.775  -22.6329  19.9431
174.449  -22.6552  19.9295
191.122  -22.6078  19.9468
207.793  -22.4588  20.0105
224.462  -22.2083  20.1206
242.745  -21.3226  20.4288
258.973  -18.4642  22.0456
273.058  -13.6205  24.9866
285  -6.79157  29.2519
-10  -16.4576  27.9277
-1.11296  -17.6145  26.8825
7.72972  -18.6565  25.9434
16.528  -19.5837  25.1105
25.5196  -20.4162  24.3729
41.6881  -21.597  23.4982
58.0038  -22.3863  22.8832
74.4668  -22.7842  22.5279
91.0768  -22.7915  22.4317
107.751  -22.661  22.4462
124.426  -22.5897  22.4555
141.1  -22.5742  22.4595
157.775  -22.5769  22.4562
174.449  -22.5853  22.4467
191.122  -22.5633  22.4596
207.793  -22.4967  22.506
224.462  -22.3857  22.586
242.745  -22.0854  22.7825
258.973  -19.4742  23.984
273.058  -14.52  26.2036
285  -7.2226  29.4412
-10  -17.3653  28.6165
-1.11296  -18.6802  27.9057
7.72972  -19.7476  27.2703
16.528  -20.5673  26.7102
25.5196  -21.1536  26.219
41.6881  -21.912  25.6541
58.0038  -22.4167  25.2563
74.4668  -22.6678  25.0254
91.0768  -22.6659  24.9611
107.751  -22.576  24.9686
124.426  -22.527  24.9736
141.1  -22.5162  24.9761
157.775  -22.5148  24.9742
174.449  -22.5146  24.9685
191.122  -22.5082  24.9769
207.793  -22.4927  25.0066
224.462  -22.4683  25.0575
242.745  -22.7684  25.1527
258.973  -20.4268  25.9412
273.058  -15.3888  27.4333
285  -7.65435  29.629
-10  -18.2712  29.3072
-1.11296  -19.7287  28.9468
7.72972  -20.8017  28.6255
16.528  -21.4904  28.3434
25.5196  -21.8049  28.0973
41.6881  -22.1724  27.8237
58.0038  -22.4167  27.63
74.4668  -22.5375  27.5163
91.0768  -22.5354  27.4825
107.751  -22.4907  27.4836
124.426  -22.4663  27.4847
141.1  -22.461  27.4857
157.775  -22.4605  27.4847
174.449  -22.4605  27.4815
191.122  -22.456  27.4858
207.793  -22.4451  27.5012
224.462  -22.4277  27.5277
242.745  -23.3112  27.5541
258.973  -21.2551  27.9411
273.058  -16.1802  28.6948
285  -8.08682  29.8153
-10  -19.176  30
-1.11296  -20.7666  30
7.72972  -21.83  30
16.528  -22.3662  30
25.5196  -22.3835  30
41.6881  -22.3956  30
58.0038  -22.4032  30
74.4668  -22.4062  30
91.0768  -22.4046  30
107.751  -22.4018  30
124.426  -22.4003  30
141.1  -22.4  30
157.775  -22.4  30
174.449  -22.4  30
191.122  -22.4  30
207.793  -22.4  30
224.462  -22.4  30
242.745  -23.6867  30
258.973  -21.8497  30
273.058  -16.7941  30
285  -8.52  30
VARIABLES = X Y Z
Zone  I = 21 ,J = 21 , Datapacking = Point
-10  1.06029e-07  18
-1.11296  6.4936e-08  10.0264
7.72972  5.03312e-08  4.36908
16.528  6.22148e-08  1.02797
25.5196  9.80726e-08  2.35741e-08
41.6881  7.56921e-08  8.81784e-09
58.0038  6.16335e-08  -2.07413e-10
74.4668  5.58968e-08  -3.50163e-09
91.0768  5.846e-08  -1.08055e-09
107.751  6.3394e-08  2.82299e-09
124.426  6.60704e-08  4.90447e-09
141.1  6.65345e-08  5.2751e-09
157.775  6.52814e-08  5.1516e-09
174.449  6.26608e-08  4.89106e-09
191.122  6.28483e-08  4.94021e-09
207.793  6.74569e-08  5.47164e-09
224.462  7.64867e-08  6.48536e-09
242.745  7.33069e-08  -3.60875
258.973  8.39948e-08  -0.593872
273.058  1.0927e-07  9.27571
285  1.49131e-07  26
-10  1.07631  18.38
-1.11296  0.79941  11.1716
7.72972  0.857558  5.77868
16.528  1.25076  2.20121
25.5196  1.95847  0.456829
41.6881  2.18249  0.178893
58.0038  2.34766  0.017202
74.4668  2.45399  -0.0282442
91.0768  2.50158  0.0422184
107.751  2.51862  0.138227
124.426  2.52713  0.189236
141.1  2.52788  0.198214
157.775  2.52924  0.197642
174.449  2.533  0.196521
191.122  2.52868  0.196371
207.793  2.51223  0.19778
224.462  2.48365  0.200749
242.745  2.48255  -3.26286
258.973  2.14139  -0.193983
273.058  1.45342  9.63216
285  0.418671  26.2156
-10  2.14737  18.7703
-1.11296  1.5932  12.319
7.72972  1.70637  7.19127
16.528  2.48686  3.38716
25.5196  3.89211  0.945101
41.6881  4.29642  0.409479
58.0038  4.60714  0.093632
74.4668  4.82426  -0.0024391
91.0768  4.94793  0.120638
107.751  5.01284  0.294225
124.426  5.04607  0.386669
141.1  5.05014  0.403284
157.775  5.05254  0.40221
174.449  5.05967  0.399757
191.122  5.0489  0.402578
207.793  5.01149  0.413244
224.462  4.94743  0.431754
242.745  4.96124  -2.91023
258.973  4.28814  0.198757
273.058  2.91376  9.97869
285  0.838094  26.4296
-10  3.22928  19.1397
-1.11296  2.27491  13.5469
7.72972  2.411  8.70805
16.528  3.63753  4.62318
25.5196  5.88066  1.35393
41.6881  6.38943  0.486922
58.0038  6.80367  -0.0124605
74.4669  7.12339  -0.144221
91.0768  7.34863  0.0905676
107.751  7.49338  0.403721
124.426  7.56855  0.570255
141.1  7.57937  0.599835
157.775  7.58321  0.598187
174.449  7.59414  0.594725
191.122  7.57951  0.59672
207.793  7.52669  0.606979
224.462  7.4357  0.625503
242.745  7.44321  -2.56351
258.973  6.42655  0.602951
273.058  4.3649  10.3381
285  1.25827  26.6419
-10  4.31036  19.5104
-1.11296  2.96089  14.7564
7.72972  3.08191  10.2517
16.528  4.67342  5.99642
25.5196  7.64616  2.0588
41.6881  8.5432  0.605924
58.0038  9.22199  -0.230564
74.4669  9.68255  -0.450662
91.0768  9.9252  -0.056169
107.751  10.0406  0.469523
124.426  10.0996  0.749034
141.1  10.1068  0.798642
157.775  10.112  0.796409
174.449  10.1267  0.791717
191.122  10.1076  0.793741
207.793  10.038  0.806024
224.462  9.9178  0.828566
242.745  9.90425  -2.18336
258.973  8.53996  1.04726
273.058  5.79829  10.7259
285  1.67921  26.8527
-10  5.3511  19.9586
-1.11296  3.87323  15.7391
7.72972  3.93947  11.6305
16.528  5.54983  7.63291
25.5196  8.65203  3.76707
41.6881  10.6175  1.1329
58.0038  11.9682  -0.429564
74.4668  12.7041  -0.920326
91.0768  12.8265  -0.342428
107.751  12.7091  0.486179
124.426  12.6436  0.926927
141.1  12.6276  1.00549
157.775  12.6337  1.00277
174.449  12.6517  0.996694
191.122  12.6257  1.00244
207.793  12.534  1.02589
224.462  12.3767  1.06702
242.745  12.2991  -1.70757
258.973  10.576  1.60222
273.058  7.17661  11.192
285  2.10092  27.0618
-10  6.32573  20.534
-1.11296  4.92648  16.7021
7.72972  4.97306  12.9372
16.528  6.46546  9.23939
25.5196  9.40645  5.58546
41.6881  12.5831  1.99551
58.0038  14.7009  -0.193446
74.4668  15.7598  -0.981409
91.0768  15.7624  -0.372244
107.751  15.3962  0.595055
124.426  15.1981  1.10936
141.1  15.1579  1.20068
157.775  15.1655  1.1974
174.449  15.1873  1.19052
191.122  15.1576  1.19507
207.793  15.0513  1.21687
224.462  14.8682  1.25593
242.745  14.5461  -1.0744
258.973  12.3946  2.39645
273.058  8.38703  11.8443
285  2.52341  27.2693
-10  7.24873  21.2083
-1.11296  6.07836  17.6429
7.72972  6.15613  14.1696
16.528  7.48205  10.7886
25.5196  10.1132  7.44095
41.6881  14.3305  3.19027
58.0038  17.1358  0.516841
74.4668  18.529  -0.57933
91.0768  18.5136  -0.102435
107.751  18.0106  0.821274
124.426  17.7391  1.31254
141.1  17.685  1.39993
157.775  17.694  1.39603
174.449  17.7197  1.3876
191.122  17.6858  1.39205
207.793  17.5624  1.41609
224.462  17.3497  1.45973
242.745  16.5817  -0.20005
258.973  13.932  3.50947
273.058  9.38701  12.7345
285  2.94668  27.4751
-10  8.16251  21.8994
-1.11296  7.27239  18.5458
7.72972  7.42571  15.3294
16.528  8.62247  12.2502
25.5196  10.9542  9.23077
41.6881  15.7394  4.75233
58.0038  18.9862  1.81427
74.4668  20.6945  0.416594
91.0768  20.868  0.555462
107.751  20.4706  1.19862
124.426  20.2552  1.54018
141.1  20.211  1.60008
157.775  20.2211  1.59618
174.449  20.2489  1.5891
191.122  20.2107  1.59342
207.793  20.0741  1.6148
224.462  19.8391  1.65324
242.745  18.265  1.04356
258.973  14.9877  5.12834
273.058  10.023  14.0069
285  3.37074  27.6792
-10  9.09502  22.5532
-1.11296  8.48201  19.4115
7.72972  8.72881  16.4495
16.528  9.83541  13.6671
25.5196  11.8993  10.9945
41.6881  16.5911  6.94318
58.0038  19.9045  4.10923
74.4668  21.8396  2.49268
91.0768  22.3992  2.09089
107.751  22.3607  2.19701
124.426  22.3313  2.25918
141.1  22.3129  2.27818
157.775  22.3298  2.26248
174.449  22.3804  2.22033
191.122  22.3099  2.26791
207.793  22.0582  2.45011
224.462  21.6255  2.76692
242.745  19.1894  3.07942
258.973  15.3845  7.33576
273.058  10.2533  15.6032
285  3.7956  27.8816
-10  10.0285  23.2046
-1.11296  9.68377  20.2823
7.72972  10.0446  17.5629
16.528  11.1109  15.0465
25.5196  12.9815  12.6652
41.6881  17.4533  8.94009
58.0038  20.5719  6.36227
74.4668  22.3375  4.93169
91.0768  22.7528  4.64582
107.751  22.6103  4.81926
124.426  22.5287  4.91692
141.1  22.5059  4.94228
157.775  22.5213  4.93337
174.449  22.5628  4.9051
191.122  22.5049  4.94435
207.793  22.299  5.0847
224.462  21.9451  5.32615
242.745  19.3887  5.63386
258.973  15.557  9.50017
273.058  10.5012  16.983
285  4.22125  28.0824
-10  10.9493  23.8796
-1.11296  10.8595  21.174
7.72972  11.3475  18.6809
16.528  12.4133  16.4002
25.5196  14.1456  14.2734
41.6881  18.1832  11.0101
58.0038  20.9962  8.73357
74.4668  22.5845  7.4438
91.0768  22.9509  7.13865
107.751  22.8146  7.2412
124.426  22.7373  7.30106
141.1  22.7173  7.31928
157.775  22.7356  7.30752
174.449  22.7796  7.27409
191.122  22.7044  7.31847
207.793  22.4538  7.47912
224.462  22.028  7.75604
242.745  19.4501  8.15932
258.973  15.669  11.6901
273.058  10.7349  18.3975
285  4.6477  28.2814
-10  11.8762  24.5407
-1.11296  12.0197  22.08
7.72972  12.631  19.8218
16.528  13.7102  17.766
25.5196  15.3337  15.8639
41.6881  18.9038  13.039
58.0038  21.3699  11.0741
74.4668  22.7321  9.96923
91.0768  22.9929  9.72244